LAMMPS (15 Sep 2022)
OMP_NUM_THREADS environment is not set. Defaulting to 1 thread. (src/comm.cpp:98)
  using 1 OpenMP thread(s) per MPI task
include ${configfile}
include ../Inputs/n360/kalj_n360_T1.lmp
ERROR on proc 0: Cannot open input script ../Inputs/n360/kalj_n360_T1.lmp: No such file or directory (src/input.cpp:1023)
Last command: ../Inputs/n360/kalj_n360_T1.lmp
